/*--------------------------------*- C++ -*----------------------------------*\
| =========                 |                                                 |
| \\      /  F ield         | OpenFOAM: The Open Source CFD Toolbox           |
|  \\    /   O peration     | Version:  v1906                                 |
|   \\  /    A nd           | Web:      www.OpenFOAM.com                      |
|    \\/     M anipulation  |                                                 |
\*---------------------------------------------------------------------------*/
FoamFile
{
    version     2.0;
    format      ascii;
    class       volVectorField;
    location    "0";
    object      Ulift0;
}
// * * * * * * * * * * * * * * * * * * * * * * * * * * * * * * * * * * * * * //

dimensions      [0 1 -1 0 0 0 0];


internalField   nonuniform List<vector> 
400
(
(0.141049 -0.147802 0)
(0.0652408 -0.0445886 0)
(-0.601386 0.0836417 0)
(-1.75339 0.176751 0)
(-3.2355 0.247301 0)
(-4.92314 0.305924 0)
(-6.70647 0.352727 0)
(-8.46633 0.379825 0)
(-10.0627 0.375654 0)
(-11.3341 0.329062 0)
(-12.1023 0.231929 0)
(-12.2109 0.085863 0)
(-11.546 -0.103797 0)
(-10.0369 -0.320459 0)
(-7.76614 -0.511016 0)
(-5.02822 -0.596366 0)
(-2.32416 -0.504998 0)
(-0.271631 -0.222908 0)
(0.61201 0.127369 0)
(0.315082 0.294873 0)
(0.00270244 -0.0533888 0)
(-1.09688 0.891063 0)
(-3.4781 1.90965 0)
(-6.82078 2.66534 0)
(-10.7481 3.15625 0)
(-14.9437 3.41311 0)
(-19.1132 3.43745 0)
(-22.9627 3.20657 0)
(-26.1943 2.69215 0)
(-28.5096 1.87723 0)
(-29.6226 0.770457 0)
(-29.3286 -0.582379 0)
(-27.4598 -2.09337 0)
(-23.9897 -3.56514 0)
(-19.1629 -4.68991 0)
(-13.4879 -5.11047 0)
(-7.7623 -4.52284 0)
(-2.99116 -2.86438 0)
(-0.145052 -0.640305 0)
(0.287444 0.688651 0)
(-0.222519 0.882405 0)
(-2.70541 3.48247 0)
(-6.87926 5.75337 0)
(-12.1452 7.31537 0)
(-17.9527 8.20747 0)
(-23.8854 8.49705 0)
(-29.5618 8.20442 0)
(-34.6152 7.31575 0)
(-38.6931 5.81429 0)
(-41.4628 3.70862 0)
(-42.625 1.05352 0)
(-41.9832 -2.03664 0)
(-39.3756 -5.34815 0)
(-34.8344 -8.47954 0)
(-28.6037 -10.8689 0)
(-21.1961 -11.8683 0)
(-13.4413 -10.8889 0)
(-6.46685 -7.71297 0)
(-1.56579 -3.07703 0)
(0.174555 0.484558 0)
(-0.443192 2.71927 0)
(-4.22687 7.67656 0)
(-9.97082 11.3608 0)
(-16.8007 13.6848 0)
(-24.0315 14.8378 0)
(-31.2067 14.9589 0)
(-37.9222 14.1034 0)
(-43.7992 12.2791 0)
(-48.4812 9.4938 0)
(-51.6386 5.79371 0)
(-52.9795 1.2898 0)
(-52.3088 -3.82471 0)
(-49.4695 -9.21761 0)
(-44.454 -14.3173 0)
(-37.4208 -18.3272 0)
(-28.7936 -20.2945 0)
(-19.3451 -19.2745 0)
(-10.2677 -14.7301 0)
(-3.20676 -7.35485 0)
(0.0552759 -0.469253 0)
(-0.61351 5.32708 0)
(-5.42441 13.1859 0)
(-12.3941 18.3557 0)
(-20.4183 21.3411 0)
(-28.7136 22.5985 0)
(-36.815 22.3818 0)
(-44.3296 20.7971 0)
(-50.896 17.8806 0)
(-56.1734 13.666 0)
(-59.8423 8.23495 0)
(-61.611 1.74831 0)
(-61.256 -5.53283 0)
(-58.598 -13.1969 0)
(-53.5381 -20.5486 0)
(-46.1059 -26.5803 0)
(-36.5851 -30.0221 0)
(-25.6389 -29.4926 0)
(-14.4816 -23.9313 0)
(-5.12071 -13.6284 0)
(-0.106926 -2.29819 0)
(-0.710822 8.48947 0)
(-6.20717 19.6583 0)
(-14.0218 26.3736 0)
(-22.8772 29.9481 0)
(-31.9246 31.2052 0)
(-40.7084 30.556 0)
(-48.864 28.1717 0)
(-56.0608 24.1159 0)
(-61.98 18.4395 0)
(-66.3085 11.2436 0)
(-68.7413 2.72046 0)
(-68.9968 -6.82081 0)
(-66.855 -16.9218 0)
(-62.117 -26.814 0)
(-54.6571 -35.3079 0)
(-44.58 -40.8145 0)
(-32.3825 -41.4403 0)
(-19.2275 -35.3843 0)
(-7.43788 -22.108 0)
(-0.362231 -5.18875 0)
(-0.730288 11.9597 0)
(-6.55485 26.7172 0)
(-14.8267 35.0422 0)
(-24.1493 39.1789 0)
(-33.6378 40.3948 0)
(-42.8566 39.2955 0)
(-51.4801 36.1284 0)
(-59.2176 30.9803 0)
(-65.7775 23.9019 0)
(-70.8519 14.9904 0)
(-74.1159 4.44331 0)
(-75.2185 -7.40368 0)
(-73.8788 -20.0627 0)
(-69.8171 -32.7485 0)
(-62.7374 -44.1371 0)
(-52.5293 -52.3396 0)
(-39.4553 -54.9023 0)
(-24.5195 -49.0812 0)
(-10.2535 -33.0267 0)
(-0.756182 -9.43243 0)
(-0.679686 15.491 0)
(-6.48782 33.9855 0)
(-14.8344 43.9834 0)
(-24.2517 48.692 0)
(-33.8423 49.8757 0)
(-43.1982 48.3682 0)
(-52.0422 44.5046 0)
(-60.136 38.3885 0)
(-67.2281 30.0518 0)
(-73.0265 19.5585 0)
(-77.1924 7.08036 0)
(-79.3158 -7.04598 0)
(-79.0255 -22.3073 0)
(-75.9955 -37.9571 0)
(-69.7598 -52.6104 0)
(-59.9588 -64.1308 0)
(-46.5453 -69.5002 0)
(-30.2313 -64.8707 0)
(-13.5983 -46.5679 0)
(-1.3273 -15.375 0)
(-0.576955 18.8599 0)
(-6.06246 41.1037 0)
(-14.1194 52.8193 0)
(-23.2519 58.1212 0)
(-32.5671 59.304 0)
(-41.6905 57.4614 0)
(-50.4043 53.0315 0)
(-58.5402 46.1325 0)
(-65.911 36.7602 0)
(-72.2679 24.916 0)
(-77.2825 10.7073 0)
(-80.5166 -5.56422 0)
(-81.4836 -23.3615 0)
(-79.8304 -42.0143 0)
(-74.9511 -60.1825 0)
(-66.2061 -75.5755 0)
(-53.1633 -84.6634 0)
(-36.0936 -82.4011 0)
(-17.4296 -62.7906 0)
(-2.10947 -23.387 0)
(-0.450125 21.8912 0)
(-5.37874 47.7525 0)
(-12.8219 61.184 0)
(-21.2962 67.0792 0)
(-29.9266 68.2785 0)
(-38.3785 66.1696 0)
(-46.5053 61.3152 0)
(-54.2295 53.8547 0)
(-61.4604 43.7392 0)
(-68.0354 30.8822 0)
(-73.6833 15.2843 0)
(-77.9883 -2.84144 0)
(-80.3654 -22.9636 0)
(-80.396 -44.4814 0)
(-77.4071 -66.2349 0)
(-70.4571 -85.9204 0)
(-58.6617 -99.6151 0)
(-41.6949 -101.076 0)
(-21.6205 -81.5554 0)
(-3.13049 -33.8275 0)
(-0.337149 24.4867 0)
(-4.5914 53.6862 0)
(-11.1675 68.7482 0)
(-18.6385 75.1737 0)
(-26.1627 76.3545 0)
(-33.4561 74.0057 0)
(-40.4559 68.8428 0)
(-47.1936 61.0441 0)
(-53.706 50.5215 0)
(-59.9673 37.0899 0)
(-65.8292 20.6058 0)
(-70.9683 1.12327 0)
(-74.804 -20.9178 0)
(-76.7403 -44.9441 0)
(-76.1463 -70.1103 0)
(-71.7775 -94.2942 0)
(-62.2472 -113.375 0)
(-46.4778 -120.022 0)
(-25.9393 -102.455 0)
(-4.40338 -46.9984 0)
(-0.283417 26.6682 0)
(-3.91854 58.7704 0)
(-9.48298 75.2467 0)
(-15.6562 82.0327 0)
(-21.6619 83.0711 0)
(-27.2926 80.4348 0)
(-32.5843 75.0199 0)
(-37.6888 67.0682 0)
(-42.7881 56.4747 0)
(-48.0303 42.9685 0)
(-53.4596 26.2505 0)
(-58.9243 6.14729 0)
(-64.0715 -17.155 0)
(-67.977 -43.0799 0)
(-70.1653 -71.1758 0)
(-69.1349 -99.7552 0)
(-62.979 -124.782 0)
(-49.7213 -138.079 0)
(-30.0226 -124.752 0)
(-5.90926 -63.0787 0)
(-0.350499 28.5963 0)
(-3.65195 63.0546 0)
(-8.19724 80.505 0)
(-12.8357 87.3172 0)
(-16.9261 87.9734 0)
(-20.3943 84.9109 0)
(-23.4011 79.2211 0)
(-26.2249 71.2299 0)
(-29.1909 60.8464 0)
(-32.6249 47.7541 0)
(-36.7969 31.5361 0)
(-41.8041 11.776 0)
(-47.7265 -11.7996 0)
(-53.4076 -38.7351 0)
(-58.5055 -68.9161 0)
(-61.4105 -101.376 0)
(-59.7398 -132.536 0)
(-50.4959 -153.785 0)
(-33.3346 -147.306 0)
(-7.56895 -82.0263 0)
(-0.644562 30.6403 0)
(-4.184 66.784 0)
(-7.81538 84.4546 0)
(-10.7047 90.718 0)
(-12.4668 90.6113 0)
(-13.2658 86.8982 0)
(-13.4361 80.8447 0)
(-13.3945 72.8587 0)
(-13.5947 62.8827 0)
(-14.5053 50.5972 0)
(-16.5843 35.535 0)
(-20.1935 17.1198 0)
(-25.6995 -5.33967 0)
(-32.6988 -32.0578 0)
(-40.368 -63.0808 0)
(-47.4091 -98.3811 0)
(-51.1612 -135.302 0)
(-47.56 -165.395 0)
(-35.091 -168.498 0)
(-9.19023 -103.427 0)
(-1.34962 33.4867 0)
(-6.04166 70.3939 0)
(-8.85166 87.0635 0)
(-9.66727 91.8975 0)
(-8.57046 90.5042 0)
(-6.11617 85.8682 0)
(-2.88918 79.3564 0)
(0.529043 71.413 0)
(3.56935 61.9987 0)
(5.67465 50.8089 0)
(6.28519 37.3827 0)
(4.87567 21.0986 0)
(0.867626 1.03784 0)
(-6.12312 -23.7901 0)
(-15.3254 -53.9979 0)
(-25.9424 -90.428 0)
(-35.5018 -131.832 0)
(-39.1485 -170.921 0)
(-34.0821 -186.154 0)
(-10.3499 -126.321 0)
(-2.73669 38.2952 0)
(-9.81396 74.4123 0)
(-11.5702 88.1373 0)
(-9.5765 90.3149 0)
(-4.7489 87.0117 0)
(1.77875 81.2002 0)
(9.0697 74.1934 0)
(16.3476 66.4001 0)
(22.9607 57.7525 0)
(28.3538 47.9069 0)
(31.9501 36.4187 0)
(33.177 22.7066 0)
(31.4324 5.87997 0)
(25.8883 -15.4412 0)
(16.8648 -42.6144 0)
(4.18255 -77.7162 0)
(-10.5824 -121.164 0)
(-22.6671 -168.015 0)
(-28.3234 -197.414 0)
(-10.1577 -149.098 0)
(-5.06472 47.0157 0)
(-15.6228 79.1721 0)
(-14.9975 86.8268 0)
(-8.42841 84.8396 0)
(1.72758 79.0308 0)
(13.5241 71.9687 0)
(25.5585 64.7741 0)
(37.1366 57.5079 0)
(47.6626 49.9542 0)
(56.6228 41.7581 0)
(63.4795 32.4891 0)
(67.6634 21.5899 0)
(68.5837 8.21366 0)
(65.379 -9.02149 0)
(57.5813 -31.8033 0)
(44.5692 -62.2936 0)
(26.3791 -102.961 0)
(5.57429 -153.656 0)
(-14.5458 -197.917 0)
(-6.86291 -168.959 0)
(-8.17746 63.1307 0)
(-20.9711 83.6061 0)
(-13.3287 80.4938 0)
(1.87683 72.9369 0)
(19.7521 64.7766 0)
(37.8462 57.2432 0)
(55.323 50.4749 0)
(71.6229 44.2329 0)
(86.3312 38.1936 0)
(99.0677 32.0011 0)
(109.398 25.2656 0)
(116.8 17.4949 0)
(120.677 7.94601 0)
(120.127 -4.56696 0)
(113.986 -21.6857 0)
(101.092 -45.6979 0)
(80.0152 -79.7474 0)
(50.6503 -126.529 0)
(12.8884 -180.131 0)
(3.41255 -178.214 0)
(-5.0671 82.739 0)
(-10.1732 80.8438 0)
(18.0869 63.0223 0)
(47.486 51.8912 0)
(74.6891 43.4617 0)
(99.5917 36.7137 0)
(122.257 31.2668 0)
(142.636 26.7034 0)
(160.678 22.6462 0)
(176.268 18.776 0)
(189.17 14.788 0)
(198.98 10.3162 0)
(205.159 4.82148 0)
(206.67 -2.50101 0)
(201.907 -12.8565 0)
(188.853 -28.063 0)
(164.381 -51.0147 0)
(124.681 -85.9079 0)
(66.1588 -134.814 0)
(33.1049 -156.091 0)
(90.1898 53.353 0)
(116.012 42.3992 0)
(167.87 27.5904 0)
(209.256 19.3911 0)
(240.548 14.3347 0)
(265.741 10.8454 0)
(286.705 8.36056 0)
(304.302 6.53966 0)
(319.069 5.13802 0)
(331.313 3.98355 0)
(341.125 2.94534 0)
(348.367 1.8958 0)
(352.682 0.683736 0)
(353.123 -0.896771 0)
(348.193 -3.18485 0)
(335.431 -6.76197 0)
(310.826 -12.757 0)
(266.809 -23.775 0)
(191.389 -47.0196 0)
(127.46 -73.6095 0)
)
;

boundaryField
{
    movingWall
    {
        type            calculated;
        value           uniform (470.964 0 0);
    }
    fixedWalls
    {
        type            calculated;
        value           uniform (0 0 0);
    }
    frontAndBack
    {
        type            empty;
    }
}

